
     Program PWSCF v.7.1 starts on  9Nov2022 at 12:22:39 

     This program is part of the open-source Quantum ESPRESSO suite
     for quantum simulation of materials; please cite
         "P. Giannozzi et al., J. Phys.:Condens. Matter 21 395502 (2009);
         "P. Giannozzi et al., J. Phys.:Condens. Matter 29 465901 (2017);
         "P. Giannozzi et al., J. Chem. Phys. 152 154105 (2020);
          URL http://www.quantum-espresso.org", 
     in publications or presentations arising from this work. More details at
     http://www.quantum-espresso.org/quote

     Parallel version (MPI & OpenMP), running on      16 processor cores
     Number of MPI processes:                16
     Threads/MPI process:                     1

     MPI processes distributed on     1 nodes
     990353 MiB available memory on the printing compute node when the environment starts

     Reading input from /ceph/hpc/home/eufabrizior/materials-for-max-coe-enccs-workshop-2022/Day-1/ex2-ndiag/../inputs/pw.CuO.scf.in
Warning: card  &CELL ignored
Warning: card     CELL_DYNAMICS = BFGS, ignored
Warning: card     PRESS = 0 ignored
Warning: card  / ignored

     Current dimensions of program PWSCF are:
     Max number of different atomic species (ntypx) = 10
     Max number of k-points (npk) =  40000
     Max angular momentum in pseudopotentials (lmaxx) =  4
     Found identity + (  0.2500  0.2500  0.0000) symmetry
     This is a supercell, fractional translations are disabled
     Message from routine setup:
     using ibrav=0 with symmetry is DISCOURAGED, use correct ibrav instead

     K-points division:     npool     =       4
     R & G space division:  proc/nbgrp/npool/nimage =       4
     Subspace diagonalization in iterative solution of the eigenvalue problem:
     one sub-group per band group will be used
     scalapack distributed-memory algorithm (size of sub-group:  2*  2 procs)


     Parallelization info
     --------------------
     sticks:   dense  smooth     PW     G-vecs:    dense   smooth      PW
     Min        1596     636    177               120758    30550    4553
     Max        1597     637    178               120760    30555    4556
     Sum        6385    2547    711               483035   122213   18219

     Using Slab Decomposition



     bravais-lattice index     =            0
     lattice parameter (alat)  =      17.6992  a.u.
     unit-cell volume          =    4367.8091 (a.u.)^3
     number of atoms/cell      =           64
     number of atomic types    =            2
     number of electrons       =       800.00
     number of Kohn-Sham states=          480
     kinetic-energy cutoff     =      35.0000  Ry
     charge density cutoff     =     350.0000  Ry
     scf convergence threshold =      1.0E-07
     mixing beta               =       0.5000
     number of iterations used =            8  plain     mixing
     Exchange-correlation= SLA  PW   PBE  PBE
                           (   1   4   3   4   0   0   0)

     celldm(1)=  17.699175  celldm(2)=   0.000000  celldm(3)=   0.000000
     celldm(4)=   0.000000  celldm(5)=   0.000000  celldm(6)=   0.000000

     crystal axes: (cart. coord. in units of alat)
               a(1) = (   1.000000   0.000000   0.000000 )  
               a(2) = (   0.000000   0.730365   0.000000 )  
               a(3) = (  -0.184506   0.000000   1.078610 )  

     reciprocal axes: (cart. coord. in units 2 pi/alat)
               b(1) = (  1.000000 -0.000000  0.171059 )  
               b(2) = (  0.000000  1.369178 -0.000000 )  
               b(3) = (  0.000000  0.000000  0.927119 )  


     PseudoPot. # 1 for O  read from file:
     /ceph/hpc/home/eufabrizior/materials-for-max-coe-enccs-workshop-2022/Day-1/ex2-ndiag/../../pseudo/o_pbe_v1.2.uspp.F.UPF
     MD5 check sum: 734c27235a0248c51dbae37a1fbe46ec
     Pseudo is Ultrasoft + core correction, Zval =  6.0
     Generated by new atomic code, or converted to UPF format
     Using radial grid of  737 points,  5 beta functions with: 
                l(1) =   0
                l(2) =   0
                l(3) =   1
                l(4) =   1
                l(5) =   2
     Q(r) pseudized with  8 coefficients,  rinner =    0.900   0.900   0.900
                                                       0.900   0.900

     PseudoPot. # 2 for Cu read from file:
     /ceph/hpc/home/eufabrizior/materials-for-max-coe-enccs-workshop-2022/Day-1/ex2-ndiag/../../pseudo/cu_pbe_v1.2.uspp.F.UPF
     MD5 check sum: 6e991ff952a84172a2a52a1c1e996048
     Pseudo is Ultrasoft + core correction, Zval = 19.0
     Generated by new atomic code, or converted to UPF format
     Using radial grid of  867 points,  6 beta functions with: 
                l(1) =   0
                l(2) =   0
                l(3) =   1
                l(4) =   1
                l(5) =   2
                l(6) =   2
     Q(r) pseudized with  8 coefficients,  rinner =    1.150   1.150   1.150
                                                       1.150   1.150

     atomic species   valence    mass     pseudopotential
        O              6.00     1.00000     O ( 1.00)
        Cu            19.00     1.00000     Cu( 1.00)

     Starting magnetic structure 
     atomic species   magnetization
        O            0.000
        Cu           0.500

      2 Sym. Ops., with inversion, found



   Cartesian axes

     site n.     atom                  positions (alat units)
         1           O   tau(   1) = (  -0.0230632   0.1522811   0.1348263  )
         2           O   tau(   2) = (  -0.1614426   0.5780840   0.9437839  )
         3           O   tau(   3) = (  -0.0691897   0.5780840   0.4044788  )
         4           O   tau(   4) = (   0.2269368   0.3348724   0.1348263  )
         5           O   tau(   5) = (   0.0885574   0.0303102   0.9437839  )
         6           O   tau(   6) = (   0.1808103   0.0303102   0.4044788  )
         7           O   tau(   7) = (  -0.1153162   0.1522811   0.6741314  )
         8           O   tau(   8) = (   0.1346838   0.3348724   0.6741314  )
         9           O   tau(   9) = (  -0.0230632   0.5174637   0.1348263  )
        10           O   tau(  10) = (  -0.1614426   0.2129014   0.9437839  )
        11           O   tau(  11) = (  -0.0691897   0.2129014   0.4044788  )
        12           O   tau(  12) = (   0.2269368   0.7000550   0.1348263  )
        13           O   tau(  13) = (   0.0885574   0.3954927   0.9437839  )
        14           O   tau(  14) = (   0.1808103   0.3954927   0.4044788  )
        15           O   tau(  15) = (  -0.1153162   0.5174637   0.6741314  )
        16           O   tau(  16) = (   0.1346838   0.7000550   0.6741314  )
        17           O   tau(  17) = (   0.4769368   0.1522811   0.1348263  )
        18           O   tau(  18) = (   0.3385574   0.5780840   0.9437839  )
        19           O   tau(  19) = (   0.4308103   0.5780840   0.4044788  )
        20           O   tau(  20) = (   0.7269368   0.3348724   0.1348263  )
        21           O   tau(  21) = (   0.5885574   0.0303102   0.9437839  )
        22           O   tau(  22) = (   0.6808103   0.0303102   0.4044788  )
        23           O   tau(  23) = (   0.3846838   0.1522811   0.6741314  )
        24           O   tau(  24) = (   0.6346838   0.3348724   0.6741314  )
        25           O   tau(  25) = (   0.4769368   0.5174637   0.1348263  )
        26           O   tau(  26) = (   0.3385574   0.2129014   0.9437839  )
        27           O   tau(  27) = (   0.4308103   0.2129014   0.4044788  )
        28           O   tau(  28) = (   0.7269368   0.7000550   0.1348263  )
        29           O   tau(  29) = (   0.5885574   0.3954927   0.9437839  )
        30           O   tau(  30) = (   0.6808103   0.3954927   0.4044788  )
        31           O   tau(  31) = (   0.3846838   0.5174637   0.6741314  )
        32           O   tau(  32) = (   0.6346838   0.7000550   0.6741314  )
        33           Cu  tau(  33) = (   0.1250000   0.0912956   0.0000000  )
        34           Cu  tau(  34) = (   0.8750000   0.6390695   0.0000000  )
        35           Cu  tau(  35) = (   0.8288735   0.0912956   0.2696526  )
        36           Cu  tau(  36) = (   0.0788735   0.6390695   0.2696526  )
        37           Cu  tau(  37) = (   0.3750000   0.2738869   0.0000000  )
        38           Cu  tau(  38) = (   0.0788735   0.2738869   0.2696526  )
        39           Cu  tau(  39) = (   0.3288735   0.0912956   0.2696526  )
        40           Cu  tau(  40) = (   0.0327471   0.0912956   0.5393051  )
        41           Cu  tau(  41) = (   0.7827471   0.6390695   0.5393051  )
        42           Cu  tau(  42) = (   0.7366206   0.0912956   0.8089577  )
        43           Cu  tau(  43) = (  -0.0133794   0.6390695   0.8089577  )
        44           Cu  tau(  44) = (   0.2827471   0.2738869   0.5393051  )
        45           Cu  tau(  45) = (  -0.0133794   0.2738869   0.8089577  )
        46           Cu  tau(  46) = (   0.2366206   0.0912956   0.8089577  )
        47           Cu  tau(  47) = (   0.1250000   0.4564782   0.0000000  )
        48           Cu  tau(  48) = (   0.8750000   0.2738869   0.0000000  )
        49           Cu  tau(  49) = (   0.8288735   0.4564782   0.2696526  )
        50           Cu  tau(  50) = (   0.3750000   0.6390695   0.0000000  )
        51           Cu  tau(  51) = (   0.3288735   0.4564782   0.2696526  )
        52           Cu  tau(  52) = (   0.0327471   0.4564782   0.5393051  )
        53           Cu  tau(  53) = (   0.7827471   0.2738869   0.5393051  )
        54           Cu  tau(  54) = (   0.7366206   0.4564782   0.8089577  )
        55           Cu  tau(  55) = (   0.2827471   0.6390695   0.5393051  )
        56           Cu  tau(  56) = (   0.2366206   0.4564782   0.8089577  )
        57           Cu  tau(  57) = (   0.6250000   0.0912956   0.0000000  )
        58           Cu  tau(  58) = (   0.5788735   0.6390695   0.2696526  )
        59           Cu  tau(  59) = (   0.5788735   0.2738869   0.2696526  )
        60           Cu  tau(  60) = (   0.5327471   0.0912956   0.5393051  )
        61           Cu  tau(  61) = (   0.4866206   0.6390695   0.8089577  )
        62           Cu  tau(  62) = (   0.4866206   0.2738869   0.8089577  )
        63           Cu  tau(  63) = (   0.6250000   0.4564782   0.0000000  )
        64           Cu  tau(  64) = (   0.5327471   0.4564782   0.5393051  )

     number of k points=     8  Methfessel-Paxton smearing, width (Ry)=  0.0100
                       cart. coord. in units 2pi/alat
        k(    1) = (   0.0000000   0.0000000   0.0000000), wk =   0.1250000
        k(    2) = (   0.0000000   0.0000000  -0.4635595), wk =   0.1250000
        k(    3) = (   0.0000000  -0.6845891   0.0000000), wk =   0.1250000
        k(    4) = (   0.0000000  -0.6845891  -0.4635595), wk =   0.1250000
        k(    5) = (  -0.5000000   0.0000000  -0.0855294), wk =   0.1250000
        k(    6) = (  -0.5000000   0.0000000  -0.5490889), wk =   0.1250000
        k(    7) = (  -0.5000000  -0.6845891  -0.0855294), wk =   0.1250000
        k(    8) = (  -0.5000000  -0.6845891  -0.5490889), wk =   0.1250000

     Dense  grid:   483035 G-vectors     FFT dimensions: ( 108,  80, 120)

     Smooth grid:   122213 G-vectors     FFT dimensions: (  72,  50,  75)

     Estimated max dynamical RAM per process >     503.96 MB

     Estimated total dynamical RAM >       7.18 GB

     Check: negative core charge=   -0.000002
     Generating pointlists ...
     new r_m :   0.0859 (alat units)  1.5202 (a.u.) for type    1
     new r_m :   0.0859 (alat units)  1.5202 (a.u.) for type    2

     Initial potential from superposition of free atoms

     starting charge     767.9999, renormalised to     800.0000
     Starting wfcs are  544 atomic wfcs

     total cpu time spent up to now is       18.3 secs

     Self-consistent Calculation

     iteration #  1     ecut=    35.00 Ry     beta= 0.50
     Davidson diagonalization with overlap
     ethr =  1.00E-02,  avg # of iterations =  3.6

     total cpu time spent up to now is       65.6 secs

     total energy              =  -13814.48629833 Ry
     estimated scf accuracy    <     256.67010713 Ry

     total magnetization       =   100.86 Bohr mag/cell
     absolute magnetization    =   107.40 Bohr mag/cell

     iteration #  2     ecut=    35.00 Ry     beta= 0.50
     Davidson diagonalization with overlap
     ethr =  1.00E-02,  avg # of iterations =  3.0

     total cpu time spent up to now is      119.8 secs

     total energy              =  -13919.03203722 Ry
     estimated scf accuracy    <     423.44026184 Ry

     total magnetization       =     7.91 Bohr mag/cell
     absolute magnetization    =    11.88 Bohr mag/cell

     iteration #  3     ecut=    35.00 Ry     beta= 0.50
     Davidson diagonalization with overlap
     ethr =  1.00E-02,  avg # of iterations =  2.0

     total cpu time spent up to now is      161.0 secs

     total energy              =  -13936.10189575 Ry
     estimated scf accuracy    <      79.23343546 Ry

     total magnetization       =    18.87 Bohr mag/cell
     absolute magnetization    =    25.51 Bohr mag/cell

     iteration #  4     ecut=    35.00 Ry     beta= 0.50
     Davidson diagonalization with overlap
     ethr =  9.90E-03,  avg # of iterations =  2.1

     total cpu time spent up to now is      198.1 secs

     total energy              =  -13951.84219563 Ry
     estimated scf accuracy    <      22.27972501 Ry

     total magnetization       =    32.26 Bohr mag/cell
     absolute magnetization    =    39.66 Bohr mag/cell

     End of self-consistent calculation

     convergence NOT achieved after   4 iterations: stopping

     Writing config to output data dir ./out/pwscf.save/

     init_run     :     17.57s CPU     18.14s WALL (       1 calls)
     electrons    :    175.59s CPU    179.83s WALL (       1 calls)

     Called by init_run:
     wfcinit      :     10.15s CPU     10.52s WALL (       1 calls)
     potinit      :      2.62s CPU      2.72s WALL (       1 calls)
     hinit0       :      4.38s CPU      4.42s WALL (       1 calls)

     Called by electrons:
     c_bands      :    159.51s CPU    162.88s WALL (       4 calls)
     sum_band     :     12.29s CPU     12.83s WALL (       4 calls)
     v_of_rho     :      2.89s CPU      3.09s WALL (       5 calls)
     newd         :      1.32s CPU      1.53s WALL (       5 calls)
     mix_rho      :      0.16s CPU      0.18s WALL (       4 calls)

     Called by c_bands:
     init_us_2    :      1.08s CPU      1.13s WALL (      36 calls)
     init_us_2:cp :      1.08s CPU      1.13s WALL (      36 calls)
     cegterg      :    149.95s CPU    153.27s WALL (      16 calls)

     Called by *egterg:
     cdiaghg      :     23.47s CPU     24.04s WALL (      58 calls)
     h_psi        :     57.38s CPU     58.93s WALL (      62 calls)
     s_psi        :     17.22s CPU     17.30s WALL (      62 calls)
     g_psi        :      0.21s CPU      0.21s WALL (      42 calls)

     Called by h_psi:
     h_psi:calbec :     17.76s CPU     17.91s WALL (      62 calls)
     vloc_psi     :     22.00s CPU     22.94s WALL (      62 calls)
     add_vuspsi   :     17.25s CPU     17.35s WALL (      62 calls)

     General routines
     calbec       :     23.67s CPU     23.88s WALL (      78 calls)
     fft          :      1.57s CPU      1.70s WALL (     123 calls)
     ffts         :      0.31s CPU      0.32s WALL (      18 calls)
     fftw         :     22.48s CPU     23.45s WALL (   53488 calls)
     interpolate  :      0.41s CPU      0.42s WALL (      10 calls)
     davcio       :      0.00s CPU      0.01s WALL (       8 calls)

     Parallel routines

     PWSCF        :   3m13.35s CPU   3m18.22s WALL


   This run was terminated on:  12:25:58   9Nov2022            

=------------------------------------------------------------------------------=
   JOB DONE.
=------------------------------------------------------------------------------=
